LAMMPS (2 Aug 2023 - Update 3)
OMP_NUM_THREADS environment is not set. Defaulting to 1 thread. (src/comm.cpp:98)
  using 1 OpenMP thread(s) per MPI task
# Initial configuration for nanoparticle simulation

units           lj
atom_style      atomic
dimension       3

# Define the simulation box with periodic boundaries
boundary        p p p

# Create atoms
region          box block 0 20 0 20 0 20  # Increase the size of the box
create_box      1 box
Created orthogonal box = (0 0 0) to (20 20 20)
  1 by 1 by 1 MPI processor grid
create_atoms    1 random 1000 12345 box
Created 1000 atoms
  using lattice units in orthogonal box = (0 0 0) to (20 20 20)
  create_atoms CPU = 0.001 seconds

# Set mass for atom type 1
mass            1 1.0

# Define interatomic potential
pair_style      lj/cut 2.5
pair_coeff      1 1 0.0001 1.0 2.5  # Reduce epsilon to 0.1

# Set initial velocity with a lower temperature
velocity        all create 0.05 12345 dist gaussian  # Decrease the initial temperature

# Define settings for the run
fix             1 all nve
neighbor        0.3 bin
neigh_modify    every 1 delay 0 check yes

# Define the timestep
timestep        0.00001  # Decrease the timestep

# Output settings
thermo          100
dump            1 all custom 100 lammps_output.dump id type x y z vx vy vz

# Run the simulation
run             10000
Generated 0 of 0 mixed pair_coeff terms from geometric mixing rule
Neighbor list info ...
  update: every = 1 steps, delay = 0 steps, check = yes
  max neighbors/atom: 2000, page size: 100000
  master list distance cutoff = 2.8
  ghost atom cutoff = 2.8
  binsize = 1.4, bins = 15 15 15
  1 neighbor lists, perpetual/occasional/extra = 1 0 0
  (1) pair lj/cut, perpetual
      attributes: half, newton on
      pair build: half/bin/atomonly/newton
      stencil: half/bin/3d
      bin: standard
Per MPI rank memory allocation (min/avg/max) = 3.117 | 3.117 | 3.117 Mbytes
   Step          Temp          E_pair         E_mol          TotEng         Press     
         0   0.05           2551.0289      0              2551.1038      1275.5362    
       100   1554.5489      1.5275061      0              2331.0191      194.88906    
       200   1554.6217      1.4188233      0              2331.0195      194.84363    
       300   1555.3942      0.26086824     0              2331.0191      194.36087    
       400   1555.4386      0.19437824     0              2331.0191      194.33312    
       500   1555.4578      0.16557736     0              2331.0191      194.32109    
       600   1555.4664      0.15267829     0              2331.0191      194.3157     
       700   1555.4682      0.15001305     0              2331.0191      194.31458    
       800   1555.4662      0.15303812     0              2331.0191      194.31584    
       900   1555.4671      0.1516375      0              2331.0191      194.31524    
      1000   1555.4684      0.14971267     0              2331.0191      194.31443    
      1100   1555.4745      0.14049813     0              2331.0191      194.31058    
      1200   1555.4841      0.12611668     0              2331.0191      194.30458    
      1300   1555.4961      0.10811322     0              2331.0191      194.29706    
      1400   1555.5062      0.093033719    0              2331.0191      194.29076    
      1500   1555.5127      0.083245798    0              2331.0191      194.28668    
      1600   1555.5046      0.095462267    0              2331.0191      194.29178    
      1700   1555.2748      0.43978368     0              2331.0191      194.43534    
      1800   1554.9244      0.96480249     0              2331.0191      194.65414    
      1900   1555.2282      0.50956658     0              2331.0191      194.46437    
      2000   1555.4838      0.12660186     0              2331.0191      194.30475    
      2100   1555.5306      0.056533249    0              2331.0191      194.2755     
      2200   1555.5389      0.044024441    0              2331.0191      194.27027    
      2300   1555.5367      0.047342738    0              2331.0191      194.27166    
      2400   1555.5379      0.045298121    0              2331.0189      194.27078    
      2500   1555.5339      0.051318002    0              2331.0189      194.27329    
      2600   1555.5271      0.061517222    0              2331.0189      194.27755    
      2700   1555.5352      0.049368257    0              2331.0189      194.27248    
      2800   1555.5467      0.032204507    0              2331.0189      194.2653     
      2900   1555.5439      0.036379675    0              2331.0189      194.26704    
      3000   1555.5254      0.064126668    0              2331.0189      194.27861    
      3100   1555.5258      0.063519294    0              2331.0189      194.27836    
      3200   1555.5462      0.032857578    0              2331.0189      194.26556    
      3300   1555.4759      0.1381383      0              2331.0188      194.30948    
      3400   1554.9516      0.92356302     0              2331.0186      194.6368     
      3500   1555.5516      0.024816615    0              2331.0189      194.2622     
      3600   1555.5519      0.024368514    0              2331.0189      194.26201    
      3700   1555.5527      0.023108501    0              2331.0189      194.26148    
      3800   1555.0813      0.72969445     0              2331.019       194.55602    
      3900   1555.4234      0.21650105     0              2331.0185      194.3421     
      4000   1555.5502      0.026953813    0              2331.0189      194.26308    
      4100   1555.5411      0.040541746    0              2331.0189      194.26875    
      4200   1555.5327      0.05311622     0              2331.0189      194.274      
      4300   1555.5407      0.041194449    0              2331.0189      194.26902    
      4400   1555.5432      0.037375001    0              2331.0189      194.26742    
      4500   1555.5372      0.04642152     0              2331.0189      194.27119    
      4600   1555.5269      0.061797809    0              2331.0189      194.2776     
      4700   1555.5145      0.080419831    0              2331.0189      194.28537    
      4800   1553.9582      2.4093716      0              2331.0158      195.25575    
      4900   1555.4953      0.10918908     0              2331.0189      194.29738    
      5000   1555.4853      0.1241488      0              2331.0188      194.30362    
      5100   1555.4947      0.11012457     0              2331.0189      194.29776    
      5200   1555.5208      0.070932585    0              2331.0189      194.28141    
      5300   1555.538       0.045194565    0              2331.0189      194.27068    
      5400   1555.5495      0.0279597      0              2331.0189      194.26348    
      5500   1555.5484      0.029635111    0              2331.0189      194.26418    
      5600   1555.5559      0.018418902    0              2331.0189      194.25949    
      5700   1555.5484      0.029612824    0              2331.0189      194.26416    
      5800   1555.5393      0.043216439    0              2331.0189      194.26984    
      5900   1555.5564      0.017669434    0              2331.0189      194.25917    
      6000   1555.3758      0.28803373     0              2331.0186      194.37188    
      6100   1555.5591      0.013487185    0              2331.0189      194.25742    
      6200   1555.5604      0.011556646    0              2331.0189      194.2566     
      6300   1555.5608      0.010970556    0              2331.0189      194.25635    
      6400   1552.2277      4.9717066      0              2330.9849      196.32099    
      6500   1555.5613      0.010221535    0              2331.0189      194.25604    
      6600   1555.5613      0.010303726    0              2331.0189      194.25607    
      6700   1555.5606      0.011332218    0              2331.0189      194.2565     
      6800   1555.5607      0.011224495    0              2331.0189      194.25645    
      6900   1555.5603      0.011699898    0              2331.0189      194.25665    
      7000   1555.5603      0.011684252    0              2331.0189      194.25664    
      7100   1555.5606      0.011266918    0              2331.0189      194.25647    
      7200   1555.5608      0.011041253    0              2331.0189      194.25638    
      7300   1555.5599      0.012394696    0              2331.0189      194.25694    
      7400   1555.5607      0.011215322    0              2331.0189      194.25645    
      7500   1555.5606      0.011240743    0              2331.0189      194.25645    
      7600   1555.5608      0.011082721    0              2331.0189      194.25639    
      7700   1555.5606      0.011337957    0              2331.0189      194.25649    
      7800   1555.5595      0.012918569    0              2331.0189      194.25716    
      7900   1555.5603      0.011721845    0              2331.0189      194.25665    
      8000   1555.5598      0.012525658    0              2331.0189      194.25699    
      8100   1555.557       0.016657096    0              2331.0189      194.25872    
      8200   1555.5305      0.056470519    0              2331.0189      194.27533    
      8300   1555.3045      0.39499959     0              2331.0189      194.41645    
      8400   1555.0283      0.80880133     0              2331.0188      194.58896    
      8500   1555.4709      0.14570423     0              2331.0189      194.31256    
      8600   1545.7559      14.316029      0              2330.6312      200.18512    
      8700   1555.5437      0.036548341    0              2331.0189      194.26704    
      8800   1555.5619      0.0094268523   0              2331.0189      194.25569    
      8900   1555.3765      0.28613777     0              2331.0178      194.37098    
      9000   1555.5611      0.010517698    0              2331.0189      194.25615    
      9100   1555.5543      0.020762951    0              2331.0189      194.26043    
      9200   1555.5473      0.031288622    0              2331.0189      194.26482    
      9300   1555.5234      0.067097404    0              2331.0189      194.27976    
      9400   1555.4433      0.1871379      0              2331.0189      194.32981    
      9500   1555.3317      0.3543664      0              2331.0189      194.39952    
      9600   1555.3765      0.2871944      0              2331.0189      194.37151    
      9700   1555.4851      0.12449473     0              2331.0189      194.30368    
      9800   1555.5359      0.048300649    0              2331.0189      194.27192    
      9900   1555.5421      0.039055355    0              2331.0188      194.26807    
     10000   1555.5513      0.025231766    0              2331.0189      194.26231    
Loop time of 0.787178 on 1 procs for 10000 steps with 1000 atoms

Performance: 10975.911 tau/day, 12703.601 timesteps/s, 12.704 Matom-step/s
98.4% CPU use with 1 MPI tasks x 1 OpenMP threads

MPI task timing breakdown:
Section |  min time  |  avg time  |  max time  |%varavg| %total
---------------------------------------------------------------
Pair    | 0.35625    | 0.35625    | 0.35625    |   0.0 | 45.26
Neigh   | 0.23406    | 0.23406    | 0.23406    |   0.0 | 29.73
Comm    | 0.036302   | 0.036302   | 0.036302   |   0.0 |  4.61
Output  | 0.091027   | 0.091027   | 0.091027   |   0.0 | 11.56
Modify  | 0.04846    | 0.04846    | 0.04846    |   0.0 |  6.16
Other   |            | 0.02108    |            |       |  2.68

Nlocal:           1000 ave        1000 max        1000 min
Histogram: 1 0 0 0 0 0 0 0 0 0
Nghost:           1109 ave        1109 max        1109 min
Histogram: 1 0 0 0 0 0 0 0 0 0
Neighs:           5709 ave        5709 max        5709 min
Histogram: 1 0 0 0 0 0 0 0 0 0

Total # of neighbors = 5709
Ave neighs/atom = 5.709
Neighbor list builds = 803
Dangerous builds = 0
Total wall time: 0:00:00
